# vtk DataFile Version 2.0
Simple example
ASCII
DATASET STRUCTURED_POINTS
DIMENSIONS 2 2 2
ORIGIN 0 0 0
SPACING 1 1 1
CELL_DATA 1
SCALARS data float
LOOKUP_TABLE default
1.0
