# vtk DataFile Version 2.0
Result TD POOCS
ASCII
DATASET STRUCTURED_POINTS
DIMENSIONS 100 2 2
ORIGIN 0.0 0.0 0.0
SPACING 0.010101 0.010101 0.010101
CELL_DATA 99
SCALARS data float
LOOKUP_TABLE default
30
29.8485
29.697
29.5455
29.3939
29.2424
29.0909
28.9394
28.7879
28.6364
28.4848
28.3333
28.1818
28.0303
27.8788
27.7273
27.5758
27.4242
27.2727
27.1212
26.9697
26.8182
26.6667
26.5152
26.3636
26.2121
26.0606
25.9091
25.7576
25.6061
25.4545
25.303
25.1515
25
24.8485
24.697
24.5455
24.3939
24.2424
24.0909
23.9394
23.7879
23.6364
23.4848
23.3333
23.1818
23.0303
22.8788
22.7273
22.5758
22.4242
22.2727
22.1212
21.9697
21.8182
21.6667
21.5152
21.3636
21.2121
21.0606
20.9091
20.7576
20.6061
20.4545
20.303
20.1515
20
19.8485
19.697
19.5455
19.3939
19.2424
19.0909
18.9394
18.7879
18.6364
18.4848
18.3333
18.1818
18.0303
17.8788
17.7273
17.5758
17.4242
17.2727
17.1212
16.9697
16.8182
16.6667
16.5152
16.3636
16.2121
16.0606
15.9091
15.7576
15.6061
15.4545
15.303
15.1515
