# vtk DataFile Version 2.0
Result TD POOCS
ASCII
DATASET STRUCTURED_POINTS
DIMENSIONS 101 2 2
ORIGIN 0.0 0.0 0.0
SPACING 0.01 0.01 0.01
CELL_DATA 100
SCALARS data float
LOOKUP_TABLE default
30
29.8502
29.7003
29.5505
29.4007
29.2508
29.101
28.9511
28.8013
28.6514
28.5015
28.3517
28.2018
28.0519
27.902
27.7521
27.6022
27.4522
27.3023
27.1524
27.0024
26.8525
26.7025
26.5525
26.4025
26.2525
26.1025
25.9525
25.8025
25.6524
25.5024
25.3523
25.2023
25.0522
24.9021
24.752
24.6019
24.4518
24.3017
24.1516
24.0014
23.8513
23.7012
23.551
23.4009
23.2508
23.1006
22.9505
22.8003
22.6502
22.5
22.3498
22.1997
22.0496
21.8994
21.7493
21.5991
21.449
21.2989
21.1487
20.9986
20.8485
20.6984
20.5483
20.3982
20.2481
20.098
19.948
19.7979
19.6478
19.4978
19.3478
19.1977
19.0477
18.8977
18.7477
18.5977
18.4477
18.2978
18.1478
17.9978
17.8479
17.698
17.548
17.3981
17.2482
17.0983
16.9484
16.7985
16.6486
16.4987
16.3488
16.1989
16.0491
15.8992
15.7493
15.5995
15.4496
15.2997
15.1499
