# vtk DataFile Version 2.0
Result TD POOCS
ASCII
DATASET STRUCTURED_POINTS
DIMENSIONS 100 2 2
ORIGIN 0.0 0.0 0.0
SPACING 0.010101 0.010101 0.010101
CELL_DATA 99
SCALARS data float
LOOKUP_TABLE default
30
29.9997
29.9993
29.9988
29.9982
29.9973
29.9961
29.9944
29.9922
29.9893
29.9854
29.9803
29.9736
29.9651
29.9542
29.9405
29.9234
29.9022
29.8762
29.8444
29.8062
29.7603
29.7059
29.6418
29.5669
29.48
29.3799
29.2655
29.1358
28.9896
28.826
28.6443
28.4437
28.2238
27.9843
27.725
27.4462
27.1481
26.8314
26.4969
26.1457
25.779
25.3984
25.0055
24.6022
24.1903
23.7721
23.3495
22.9247
22.5
22.0774
21.659
21.2467
20.8424
20.4479
20.0646
19.694
19.3372
18.9953
18.6691
18.3592
18.066
17.7899
17.5308
17.2888
17.0637
16.855
16.6624
16.4853
16.3231
16.175
16.0405
15.9186
15.8086
15.7097
15.6211
15.5419
15.4715
15.4091
15.3539
15.3053
15.2626
15.2253
15.1927
15.1644
15.1398
15.1185
15.1002
15.0843
15.0707
15.059
15.0489
15.0402
15.0327
15.026
15.0201
15.0147
15.0097
15.0048
